<?xml version="1.0"?>
<VTKFile type="PolyData" version="0.1" byte_order="LittleEndian" header_type="UInt32" compressor="vtkZLibDataCompressor">
  <PolyData>
    <Piece NumberOfPoints="20" NumberOfVerts="0" NumberOfLines="1" NumberOfStrips="0" NumberOfPolys="0">
      <PointData Scalars="spokeLength" Vectors="spokeDirection">
        <DataArray type="Float64" Name="spokeDirection" NumberOfComponents="3" format="ascii" RangeMin="0.99999985352" RangeMax="1.0000001791">
          -0.731289 -0.682068 0 -0.516442 -0.856322 0
          -0.331148 -0.943579 0 -0.161974 -0.986795 0
          0 -1 0 0.161974 -0.986795 0
          0.331148 -0.943579 0 0.516442 -0.856322 0
          0.731289 -0.682068 0 1 0 0
          0.731289 0.682068 0 0.516442 0.856322 0
          0.331148 0.943579 0 0.161974 0.986795 0
          0 1 0 -0.161974 0.986795 0
          -0.331148 0.943579 0 -0.516442 0.856322 0
          -0.731289 0.682068 0 -1 0 0
          <InformationKey name="L2_NORM_RANGE" location="vtkDataArray" length="2">
            <Value index="0">
              0.99999985352
            </Value>
            <Value index="1">
              1.0000001791
            </Value>
          </InformationKey>
        </DataArray>
        <DataArray type="Float64" Name="spokeLength" format="ascii" RangeMin="0.08125" RangeMax="0.101042">
          0.0888841 0.0943959 0.0981436 0.100325 0.101042 0.100325
          0.0981436 0.0943959 0.0888841 0.08125 0.0888841 0.0943959
          0.0981436 0.100325 0.101042 0.100325 0.0981436 0.0943959
          0.0888841 0.08125
        </DataArray>
      </PointData>
      <CellData>
      </CellData>
      <Points>
        <DataArray type="Float32" Name="Points" NumberOfComponents="3" format="ascii" RangeMin="0.75667461015" RangeMax="0.98885830693">
          0.3503742218 0.44698363543 0.5 0.38842114806 0.43037354946 0.5
          0.42587703466 0.42098242044 0.5 0.46301051974 0.41596511006 0.5
          0.5 0.41437500715 0.5 0.53698945045 0.41596511006 0.5
          0.57412296534 0.42098242044 0.5 0.61157882214 0.43037354946 0.5
          0.6496257782 0.44698363543 0.5 0.68875002861 0.5 0.5
          0.6496257782 0.55301636457 0.5 0.61157882214 0.56962645054 0.5
          0.57412296534 0.57901757956 0.5 0.53698945045 0.58403491974 0.5
          0.5 0.58562499285 0.5 0.46301051974 0.58403491974 0.5
          0.42587703466 0.57901757956 0.5 0.38842114806 0.56962645054 0.5
          0.3503742218 0.55301636457 0.5 0.31125000119 0.5 0.5
          <InformationKey name="L2_NORM_RANGE" location="vtkDataArray" length="2">
            <Value index="0">
              0.75667461015
            </Value>
            <Value index="1">
              0.98885830693
            </Value>
          </InformationKey>
        </DataArray>
      </Points>
      <Verts>
        <DataArray type="Int64" Name="connectivity" format="ascii" RangeMin="1e+299" RangeMax="-1e+299">
        </DataArray>
        <DataArray type="Int64" Name="offsets" format="ascii" RangeMin="1e+299" RangeMax="-1e+299">
        </DataArray>
      </Verts>
      <Lines>
        <DataArray type="Int64" Name="connectivity" format="ascii" RangeMin="0" RangeMax="19">
          0 1 2 3 4 5
          6 7 8 9 10 11
          12 13 14 15 16 17
          18 19 0
        </DataArray>
        <DataArray type="Int64" Name="offsets" format="ascii" RangeMin="21" RangeMax="21">
          21
        </DataArray>
      </Lines>
      <Strips>
        <DataArray type="Int64" Name="connectivity" format="ascii" RangeMin="0" RangeMax="19">
        </DataArray>
        <DataArray type="Int64" Name="offsets" format="ascii" RangeMin="21" RangeMax="21">
        </DataArray>
      </Strips>
      <Polys>
        <DataArray type="Int64" Name="connectivity" format="ascii" RangeMin="0" RangeMax="19">
        </DataArray>
        <DataArray type="Int64" Name="offsets" format="ascii" RangeMin="21" RangeMax="21">
        </DataArray>
      </Polys>
    </Piece>
  </PolyData>
</VTKFile>
